LAMMPS data file generated by OpenBabel
1500 atoms
1000 bonds
500 angles
0 dihedrals
0 impropers
2 atom types
1 bond types
1 angle types
0 dihedral types
0 improper types
  -0.50000  273.49189 xlo xhi
  -0.50000  273.49189 ylo yhi
  -0.50000  273.49189 zlo zhi



Masses

1 12.0107 # C
2 15.9994 # O


Atoms

1       1    1    0.00000  189.16916  125.68603  149.28893 #   C
2       1    2   -0.82000  188.17537  124.96308  149.76074 #   O
3       1    2   -0.82000  190.16355  126.40820  148.81725 #   O
4       2    1    0.00000  123.03328  130.46381  123.92562 #   C
5       2    2   -0.82000  123.39025  131.65796  124.34924 #   O
6       2    2   -0.82000  122.67554  129.27008  123.50154 #   O
7       3    1    0.00000  121.78610  224.42894   89.60437 #   C
8       3    2   -0.82000  122.62299  224.22711   90.60024 #   O
9       3    2   -0.82000  120.94942  224.62985   88.60816 #   O
10      4    1    0.00000  158.60570  214.12476  255.27108 #   C
11      4    2   -0.82000  157.52718  214.86560  255.12678 #   O
12      4    2   -0.82000  159.68467  213.38448  255.41468 #   O
13      5    1    0.00000   60.09138  272.03377   48.08297 #   C
14      5    2   -0.82000   58.84781  271.99139   48.51264 #   O
15      5    2   -0.82000   61.33495  272.07713   47.65348 #   O
16      6    1    0.00000   85.46232   22.40041   45.80679 #   C
17      6    2   -0.82000   86.43761   22.54101   46.67967 #   O
18      6    2   -0.82000   84.48745   22.26053   44.93335 #   O
19      7    1    0.00000  156.78704  170.32942  126.21310 #   C
20      7    2   -0.82000  156.03405  169.26960  126.00653 #   O
21      7    2   -0.82000  157.54003  171.38901  126.42065 #   O
22      8    1    0.00000  252.01796  145.87261  267.48985 #   C
23      8    2   -0.82000  250.94326  146.20109  266.80428 #   O
24      8    2   -0.82000  253.09293  145.54354  268.17465 #   O
25      9    1    0.00000  233.43043  258.96728  242.01601 #   C
26      9    2   -0.82000  232.46232  258.08854  241.86287 #   O
27      9    2   -0.82000  234.39787  259.84666  242.16955 #   O
28     10    1    0.00000   16.83713  218.07347  160.54057 #   C
29     10    2   -0.82000   17.64618  219.11162  160.56414 #   O
30     10    2   -0.82000   16.02758  217.03572  160.51778 #   O
31     11    1    0.00000  263.49819  211.50440  148.77840 #   C
32     11    2   -0.82000  262.24443  211.53812  148.37864 #   O
33     11    2   -0.82000  264.75202  211.47167  149.17798 #   O
34     12    1    0.00000  228.67868  118.99255  153.36546 #   C
35     12    2   -0.82000  227.79222  119.88344  153.75710 #   O
36     12    2   -0.82000  229.56459  118.10096  152.97425 #   O
37     13    1    0.00000  165.12433   72.03168   92.99055 #   C
38     13    2   -0.82000  164.45348   72.00824   91.85817 #   O
39     13    2   -0.82000  165.79568   72.05432   94.12262 #   O
40     14    1    0.00000   83.98259  261.18120  264.32296 #   C
41     14    2   -0.82000   84.69658  260.14579  264.71156 #   O
42     14    2   -0.82000   83.26782  262.21624  263.93486 #   O
43     15    1    0.00000  198.74340  126.82024   45.72645 #   C
44     15    2   -0.82000  198.31824  127.49714   44.68055 #   O
45     15    2   -0.82000  199.16855  126.14251   46.77180 #   O
46     16    1    0.00000  137.00942  224.60737  221.40689 #   C
47     16    2   -0.82000  137.31191  225.88344  221.52107 #   O
48     16    2   -0.82000  136.70751  223.33127  221.29190 #   O
49     17    1    0.00000  127.48483   77.28654  245.73296 #   C
50     17    2   -0.82000  128.19164   77.24085  244.62336 #   O
51     17    2   -0.82000  126.77764   77.33132  246.84233 #   O
52     18    1    0.00000   97.87903  216.22628  138.82707 #   C
53     18    2   -0.82000   97.59791  215.50092  139.88900 #   O
54     18    2   -0.82000   98.16086  216.95210  137.76567 #   O
55     19    1    0.00000  102.74498   78.03637  201.79710 #   C
56     19    2   -0.82000  101.77627   78.50499  201.03890 #   O
57     19    2   -0.82000  103.71311   77.56697  202.55553 #   O
58     20    1    0.00000  172.37865   28.98646   33.71712 #   C
59     20    2   -0.82000  171.29836   29.73869   33.71770 #   O
60     20    2   -0.82000  173.45834   28.23341   33.71648 #   O
61     21    1    0.00000   32.01409  114.26678  209.38676 #   C
62     21    2   -0.82000   32.91337  114.57576  210.29710 #   O
63     21    2   -0.82000   31.11438  113.95720  208.47710 #   O
64     22    1    0.00000  238.20156  144.62561  197.16120 #   C
65     22    2   -0.82000  239.48709  144.68040  196.88319 #   O
66     22    2   -0.82000  236.91595  144.57004  197.43860 #   O
67     23    1    0.00000  100.85224  186.79565   99.98251 #   C
68     23    2   -0.82000   99.90289  185.96964   99.59608 #   O
69     23    2   -0.82000  101.80090  187.62237  100.36902 #   O
70     24    1    0.00000  163.98375  111.27971   15.18299 #   C
71     24    2   -0.82000  164.10570  110.34591   16.10278 #   O
72     24    2   -0.82000  163.86227  112.21414   14.26380 #   O
73     25    1    0.00000   92.36679  250.15334   12.60445 #   C
74     25    2   -0.82000   91.09667  250.46914   12.46324 #   O
75     25    2   -0.82000   93.63709  249.83848   12.74596 #   O
76     26    1    0.00000  271.08995   18.46909   92.65215 #   C
77     26    2   -0.82000  270.67034   17.59593   91.76086 #   O
78     26    2   -0.82000  271.50977   19.34288   93.54269 #   O
79     27    1    0.00000  220.63218  115.36442  119.67915 #   C
80     27    2   -0.82000  220.18149  114.25592  120.22777 #   O
81     27    2   -0.82000  221.08199  116.47335  119.13073 #   O
82     28    1    0.00000  137.10233  231.45182  178.57381 #   C
83     28    2   -0.82000  135.99704  232.03208  178.99156 #   O
84     28    2   -0.82000  138.20811  230.87240  178.15629 #   O
85     29    1    0.00000   37.95742  179.78220  156.27220 #   C
86     29    2   -0.82000   38.41264  178.65546  156.77827 #   O
87     29    2   -0.82000   37.50252  180.90941  155.76694 #   O
88     30    1    0.00000  205.16709   10.03396   48.88994 #   C
89     30    2   -0.82000  204.93972    8.75095   49.07724 #   O
90     30    2   -0.82000  205.39512   11.31693   48.70339 #   O
91     31    1    0.00000  168.99930  127.00664  250.70107 #   C
92     31    2   -0.82000  167.83212  127.61519  250.71593 #   O
93     31    2   -0.82000  170.16601  126.39721  250.68622 #   O
94     32    1    0.00000  125.72937   96.39030  234.91518 #   C
95     32    2   -0.82000  125.71365   95.08175  235.05775 #   O
96     32    2   -0.82000  125.74410   97.69883  234.77251 #   O
97     33    1    0.00000   52.17524  255.57040  201.72265 #   C
98     33    2   -0.82000   53.33188  255.62521  201.09649 #   O
99     33    2   -0.82000   51.01834  255.51485  202.34820 #   O
100    34    1    0.00000   35.62742  193.13392   28.03590 #   C
101    34    2   -0.82000   36.40973  193.40317   27.01201 #   O
102    34    2   -0.82000   34.84568  192.86525   29.06037 #   O
103    35    1    0.00000   79.22807   56.52405  150.08756 #   C
104    35    2   -0.82000   79.43545   55.36085  150.66794 #   O
105    35    2   -0.82000   79.02156   57.68715  149.50671 #   O
106    36    1    0.00000  154.65511  251.49566  271.83074 #   C
107    36    2   -0.82000  155.72096  250.91261  271.32390 #   O
108    36    2   -0.82000  153.58873  252.07788  272.33738 #   O
109    37    1    0.00000   30.98881  252.22260   88.44142 #   C
110    37    2   -0.82000   30.47995  253.43374   88.35728 #   O
111    37    2   -0.82000   31.49674  251.01109   88.52561 #   O
112    38    1    0.00000   12.53217   32.08870  267.05021 #   C
113    38    2   -0.82000   13.46486   31.20407  266.76669 #   O
114    38    2   -0.82000   11.59880   32.97260  267.33370 #   O
115    39    1    0.00000  130.60316  111.27445  132.87207 #   C
116    39    2   -0.82000  131.89140  111.06370  133.04211 #   O
117    39    2   -0.82000  129.31495  111.48458  132.70125 #   O
118    40    1    0.00000  272.68521  251.02054  255.89885 #   C
119    40    2   -0.82000  272.72714  252.31214  255.64804 #   O
120    40    2   -0.82000  272.64428  249.72896  256.14976 #   O
121    41    1    0.00000  139.21293  184.68621  190.21396 #   C
122    41    2   -0.82000  138.96033  184.45770  188.94240 #   O
123    41    2   -0.82000  139.46646  184.91497  191.48526 #   O
124    42    1    0.00000  168.99095  261.06833   38.53709 #   C
125    42    2   -0.82000  168.54316  260.94000   37.30587 #   O
126    42    2   -0.82000  169.43878  261.19565   39.76837 #   O
127    43    1    0.00000   75.83566  130.29650  156.03304 #   C
128    43    2   -0.82000   76.02852  129.13336  156.61853 #   O
129    43    2   -0.82000   75.64182  131.45941  155.44748 #   O
130    44    1    0.00000    8.55558  239.66262   96.15955 #   C
131    44    2   -0.82000    8.23681  240.65594   96.96241 #   O
132    44    2   -0.82000    8.87454  238.66874   95.35750 #   O
133    45    1    0.00000  197.23395   42.40796  188.39356 #   C
134    45    2   -0.82000  196.98950   43.39185  189.23326 #   O
135    45    2   -0.82000  197.47786   41.42457  187.55317 #   O
136    46    1    0.00000  106.93817   55.98516  205.30816 #   C
137    46    2   -0.82000  106.08108   55.38551  206.10735 #   O
138    46    2   -0.82000  107.79468   56.58562  204.50899 #   O
139    47    1    0.00000  102.50816  212.70214  194.00973 #   C
140    47    2   -0.82000  101.94626  212.74157  195.19952 #   O
141    47    2   -0.82000  103.07071  212.66340  192.82026 #   O
142    48    1    0.00000  101.05998   14.48558  132.94748 #   C
143    48    2   -0.82000  102.23329   15.00450  132.65259 #   O
144    48    2   -0.82000   99.88627   13.96756  133.24220 #   O
145    49    1    0.00000   74.31486   38.23195  156.64938 #   C
146    49    2   -0.82000   75.53193   37.76422  156.83065 #   O
147    49    2   -0.82000   73.09815   38.70060  156.46827 #   O
148    50    1    0.00000  137.46788  154.54258    9.63029 #   C
149    50    2   -0.82000  136.26207  154.20335   10.03501 #   O
150    50    2   -0.82000  138.67341  154.88277    9.22557 #   O
151    51    1    0.00000  103.09392   60.72065  214.37161 #   C
152    51    2   -0.82000  102.02593   61.29388  213.85810 #   O
153    51    2   -0.82000  104.16245   60.14783  214.88438 #   O
154    52    1    0.00000  107.17145   48.70620  266.45971 #   C
155    52    2   -0.82000  108.03506   48.37660  267.39695 #   O
156    52    2   -0.82000  106.30820   49.03506  265.52191 #   O
157    53    1    0.00000  172.04329  229.91229  224.60159 #   C
158    53    2   -0.82000  172.63580  228.79145  224.24729 #   O
159    53    2   -0.82000  171.45133  231.03361  224.95520 #   O
160    54    1    0.00000   36.51880   33.45765   24.14369 #   C
161    54    2   -0.82000   37.44242   33.10151   25.01143 #   O
162    54    2   -0.82000   35.59560   33.81316   23.27528 #   O
163    55    1    0.00000  195.16994  209.87107   95.24970 #   C
164    55    2   -0.82000  193.96644  209.62752   95.72419 #   O
165    55    2   -0.82000  196.37309  210.11546   94.77480 #   O
166    56    1    0.00000   86.73347  142.03071  253.91493 #   C
167    56    2   -0.82000   86.23986  143.17132  254.34880 #   O
168    56    2   -0.82000   87.22617  140.88969  253.48118 #   O
169    57    1    0.00000   54.76912  243.96321   16.53915 #   C
170    57    2   -0.82000   56.08187  243.89249   16.47172 #   O
171    57    2   -0.82000   53.45635  244.03300   16.60692 #   O
172    58    1    0.00000  137.29708  248.11035  131.28579 #   C
173    58    2   -0.82000  138.03521  247.12410  131.74987 #   O
174    58    2   -0.82000  136.55980  249.09708  130.82147 #   O
175    59    1    0.00000    9.49211   83.71170  194.15286 #   C
176    59    2   -0.82000   10.09652   82.96665  195.05423 #   O
177    59    2   -0.82000    8.88848   84.45661  193.25089 #   O
178    60    1    0.00000   62.04393  244.20418  217.24843 #   C
179    60    2   -0.82000   61.64394  244.76566  218.36987 #   O
180    60    2   -0.82000   62.44485  243.64296  216.12722 #   O
181    61    1    0.00000   92.21524  163.02462  217.50186 #   C
182    61    2   -0.82000   92.53113  163.04330  218.77964 #   O
183    61    2   -0.82000   91.89983  163.00680  216.22396 #   O
184    62    1    0.00000    6.84604   46.50771  124.94857 #   C
185    62    2   -0.82000    8.13023   46.22996  124.86737 #   O
186    62    2   -0.82000    5.56195   46.78550  125.03076 #   O
187    63    1    0.00000  164.33089  254.89237  159.42831 #   C
188    63    2   -0.82000  164.00849  256.16515  159.52294 #   O
189    63    2   -0.82000  164.65232  253.61935  159.33375 #   O
190    64    1    0.00000  211.14782   69.22196  222.03374 #   C
191    64    2   -0.82000  211.09025   70.37261  221.39690 #   O
192    64    2   -0.82000  211.20636   68.07126  222.67035 #   O
193    65    1    0.00000   28.04776  142.84890   86.08437 #   C
194    65    2   -0.82000   28.71747  141.99139   86.82535 #   O
195    65    2   -0.82000   27.37850  143.70714   85.34389 #   O
196    66    1    0.00000    8.90869  171.66059  252.73285 #   C
197    66    2   -0.82000    8.92038  170.35388  252.57400 #   O
198    66    2   -0.82000    8.89689  172.96741  252.89070 #   O
199    67    1    0.00000   86.95963  268.44677  227.88271 #   C
200    67    2   -0.82000   88.17467  268.76200  227.48624 #   O
201    67    2   -0.82000   85.74499  268.13111  228.27999 #   O
202    68    1    0.00000   80.00949  260.77719  178.82631 #   C
203    68    2   -0.82000   78.94286  260.75408  179.59744 #   O
204    68    2   -0.82000   81.07655  260.80092  178.05584 #   O
205    69    1    0.00000   22.90322  128.53893   76.80559 #   C
206    69    2   -0.82000   21.69384  129.05292   76.88368 #   O
207    69    2   -0.82000   24.11239  128.02466   76.72656 #   O
208    70    1    0.00000  189.11048  220.90473  145.73419 #   C
209    70    2   -0.82000  189.96234  219.90152  145.76206 #   O
210    70    2   -0.82000  188.25787  221.90728  145.70624 #   O
211    71    1    0.00000   64.53145   35.72205    6.57879 #   C
212    71    2   -0.82000   63.88976   36.86957    6.51307 #   O
213    71    2   -0.82000   65.17395   34.57500    6.64417 #   O
214    72    1    0.00000   93.87774  172.90842  270.11711 #   C
215    72    2   -0.82000   93.56335  173.34456  268.91552 #   O
216    72    2   -0.82000   94.19151  172.47151  271.31856 #   O
217    73    1    0.00000  108.26808  184.90023   81.41752 #   C
218    73    2   -0.82000  109.29583  184.08000   81.35553 #   O
219    73    2   -0.82000  107.24098  185.72122   81.47959 #   O
220    74    1    0.00000  138.37172  141.03934  114.12910 #   C
221    74    2   -0.82000  137.28627  140.52115  113.59416 #   O
222    74    2   -0.82000  139.45660  141.55822  114.66446 #   O
223    75    1    0.00000   32.75008   91.69774  106.87234 #   C
224    75    2   -0.82000   33.28354   92.88402  106.66979 #   O
225    75    2   -0.82000   32.21626   90.51179  107.07576 #   O
226    76    1    0.00000  105.84080  134.34541  183.98068 #   C
227    76    2   -0.82000  105.96718  135.26095  184.91806 #   O
228    76    2   -0.82000  105.71398  133.42927  183.04397 #   O
229    77    1    0.00000  103.26162  168.47415  170.78718 #   C
230    77    2   -0.82000  102.03158  168.77138  171.14985 #   O
231    77    2   -0.82000  104.49145  168.17596  170.42465 #   O
232    78    1    0.00000  259.50482  255.91896  244.61898 #   C
233    78    2   -0.82000  259.79511  254.65622  244.38637 #   O
234    78    2   -0.82000  259.21543  257.18195  244.85122 #   O
235    79    1    0.00000  235.95836   20.88021  143.67437 #   C
236    79    2   -0.82000  235.15522   19.95680  144.15929 #   O
237    79    2   -0.82000  236.76226   21.80298  143.18952 #   O
238    80    1    0.00000  178.79669  105.67181  185.77801 #   C
239    80    2   -0.82000  179.82824  106.48160  185.89216 #   O
240    80    2   -0.82000  177.76578  104.86126  185.66378 #   O
241    81    1    0.00000  209.25590  257.07826  143.24834 #   C
242    81    2   -0.82000  210.03732  256.06779  142.93018 #   O
243    81    2   -0.82000  208.47529  258.08930  143.56656 #   O
244    82    1    0.00000  236.99240  138.74968  105.97061 #   C
245    82    2   -0.82000  236.49319  139.76423  105.29656 #   O
246    82    2   -0.82000  237.49069  137.73474  106.64472 #   O
247    83    1    0.00000   83.19168  161.13166  171.51095 #   C
248    83    2   -0.82000   82.44819  160.61845  172.46841 #   O
249    83    2   -0.82000   83.93591  161.64495  170.55415 #   O
250    84    1    0.00000  104.60812   88.05606  193.00152 #   C
251    84    2   -0.82000  105.60665   87.41312  193.56937 #   O
252    84    2   -0.82000  103.60902   88.69821  192.43384 #   O
253    85    1    0.00000  202.60403  205.40333  258.18525 #   C
254    85    2   -0.82000  203.64377  206.20800  258.11941 #   O
255    85    2   -0.82000  201.56371  204.59947  258.25119 #   O
256    86    1    0.00000  143.91578   74.17055   65.43446 #   C
257    86    2   -0.82000  142.91673   75.02573   65.37564 #   O
258    86    2   -0.82000  144.91416   73.31465   65.49344 #   O
259    87    1    0.00000  188.07964  145.68722  163.93066 #   C
260    87    2   -0.82000  188.12509  146.38673  165.04488 #   O
261    87    2   -0.82000  188.03513  144.98801  162.81623 #   O
262    88    1    0.00000  129.70405  205.75860  245.48835 #   C
263    88    2   -0.82000  129.34469  205.61069  244.23063 #   O
264    88    2   -0.82000  130.06403  205.90724  246.74578 #   O
265    89    1    0.00000    8.30546   85.15543  122.95783 #   C
266    89    2   -0.82000    8.18737   85.28669  121.65333 #   O
267    89    2   -0.82000    8.42314   85.02507  124.26243 #   O
268    90    1    0.00000  219.95099  133.95070   35.84322 #   C
269    90    2   -0.82000  221.17882  134.38283   36.03959 #   O
270    90    2   -0.82000  218.72282  133.51931   35.64743 #   O
271    91    1    0.00000  146.01115   40.20228    1.57092 #   C
272    91    2   -0.82000  146.07198   39.61238    2.74616 #   O
273    91    2   -0.82000  145.95131   40.79233    0.39572 #   O
274    92    1    0.00000   44.44127   51.59966   59.34930 #   C
275    92    2   -0.82000   43.63724   51.47657   58.31428 #   O
276    92    2   -0.82000   45.24603   51.72301   60.38369 #   O
277    93    1    0.00000   83.24899   96.48135    8.66700 #   C
278    93    2   -0.82000   82.39835   95.48600    8.53072 #   O
279    93    2   -0.82000   84.09885   97.47734    8.80325 #   O
280    94    1    0.00000  219.06910  260.21886  212.93912 #   C
281    94    2   -0.82000  219.28312  259.62207  211.78547 #   O
282    94    2   -0.82000  218.85412  260.81580  214.09249 #   O
283    95    1    0.00000   20.20433   54.82196   38.02691 #   C
284    95    2   -0.82000   20.17639   53.60758   38.53423 #   O
285    95    2   -0.82000   20.23325   56.03636   37.51973 #   O
286    96    1    0.00000  222.29742   37.00658  258.08652 #   C
287    96    2   -0.82000  220.99733   36.83310  258.19859 #   O
288    96    2   -0.82000  223.59734   37.18104  257.97436 #   O
289    97    1    0.00000  234.43076   96.04268   86.42940 #   C
290    97    2   -0.82000  233.88783   97.17807   86.81539 #   O
291    97    2   -0.82000  234.97277   94.90694   86.04321 #   O
292    98    1    0.00000  133.07289  251.60670  257.64013 #   C
293    98    2   -0.82000  132.16171  250.72258  257.29232 #   O
294    98    2   -0.82000  133.98429  252.49025  257.98871 #   O
295    99    1    0.00000    3.23013   30.20099  166.81647 #   C
296    99    2   -0.82000    4.09070   30.00871  165.83906 #   O
297    99    2   -0.82000    2.36894   30.39262  167.79343 #   O
298   100    1    0.00000   46.02708  236.33871  154.71268 #   C
299   100    2   -0.82000   47.20484  236.92631  154.69080 #   O
300   100    2   -0.82000   44.84889  235.75201  154.73460 #   O
301   101    1    0.00000   57.22692  152.64454  114.75302 #   C
302   101    2   -0.82000   58.47406  152.50939  115.15210 #   O
303   101    2   -0.82000   55.97962  152.78029  114.35473 #   O
304   102    1    0.00000  175.75090   65.05765  112.66688 #   C
305   102    2   -0.82000  174.87340   64.14583  112.30430 #   O
306   102    2   -0.82000  176.62848   65.96901  113.03034 #   O
307   103    1    0.00000  132.43868  258.38262  264.29385 #   C
308   103    2   -0.82000  132.97449  258.85361  263.18752 #   O
309   103    2   -0.82000  131.90273  257.91258  265.40048 #   O
310   104    1    0.00000  233.25165   89.34310  101.76549 #   C
311   104    2   -0.82000  233.94914   88.36105  101.23448 #   O
312   104    2   -0.82000  232.55488   90.32579  102.29619 #   O
313   105    1    0.00000  233.26262   36.62591   66.30755 #   C
314   105    2   -0.82000  234.38855   36.07455   66.70900 #   O
315   105    2   -0.82000  232.13641   37.17638   65.90575 #   O
316   106    1    0.00000   62.12281  148.76715   85.31570 #   C
317   106    2   -0.82000   60.93936  148.72448   85.89059 #   O
318   106    2   -0.82000   63.30604  148.80896   84.74033 #   O
319   107    1    0.00000  266.25189   67.84776  156.95787 #   C
320   107    2   -0.82000  266.39720   66.58152  157.28716 #   O
321   107    2   -0.82000  266.10668   69.11372  156.62763 #   O
322   108    1    0.00000   31.72464  195.37160    5.95667 #   C
323   108    2   -0.82000   32.60762  194.62501    5.32752 #   O
324   108    2   -0.82000   30.84097  196.11749    6.58563 #   O
325   109    1    0.00000  172.31302  122.11700  186.36797 #   C
326   109    2   -0.82000  172.96936  122.21052  187.50522 #   O
327   109    2   -0.82000  171.65608  122.02421  185.23102 #   O
328   110    1    0.00000  147.68220  214.51827  200.76533 #   C
329   110    2   -0.82000  147.59413  214.26965  199.47564 #   O
330   110    2   -0.82000  147.77006  214.76785  202.05483 #   O
331   111    1    0.00000   91.04034  192.93992  103.53637 #   C
332   111    2   -0.82000   90.87252  194.22017  103.28010 #   O
333   111    2   -0.82000   91.20810  191.65988  103.79363 #   O
334   112    1    0.00000   48.37708   79.39600  231.14899 #   C
335   112    2   -0.82000   49.45881   78.77116  230.73386 #   O
336   112    2   -0.82000   47.29503   80.01997  231.56448 #   O
337   113    1    0.00000   16.40323  192.59351   78.88993 #   C
338   113    2   -0.82000   17.22043  193.43873   79.48211 #   O
339   113    2   -0.82000   15.58543  191.74906   78.29754 #   O
340   114    1    0.00000  204.42357  172.35404   77.44524 #   C
341   114    2   -0.82000  203.16134  172.02414   77.26965 #   O
342   114    2   -0.82000  205.68549  172.68471   77.62141 #   O
343   115    1    0.00000  197.01599  184.46869  210.20391 #   C
344   115    2   -0.82000  197.90639  185.41378  210.42044 #   O
345   115    2   -0.82000  196.12628  183.52292  209.98767 #   O
346   116    1    0.00000   76.75744  130.95657  158.89668 #   C
347   116    2   -0.82000   76.89939  129.64786  158.89363 #   O
348   116    2   -0.82000   76.61449  132.26515  158.89975 #   O
349   117    1    0.00000  221.86269   42.54725  216.33647 #   C
350   117    2   -0.82000  222.50429   41.83338  215.43556 #   O
351   117    2   -0.82000  221.22049   43.26145  217.23665 #   O
352   118    1    0.00000  240.96585  211.99618   32.69624 #   C
353   118    2   -0.82000  239.96694  212.02387   31.83934 #   O
354   118    2   -0.82000  241.96499  211.96758   33.55282 #   O
355   119    1    0.00000  187.88643  216.62323  179.17791 #   C
356   119    2   -0.82000  186.58783  216.41232  179.13277 #   O
357   119    2   -0.82000  189.18517  216.83315  179.22290 #   O
358   120    1    0.00000   25.93804   21.32298   80.82948 #   C
359   120    2   -0.82000   25.11072   20.29920   80.81263 #   O
360   120    2   -0.82000   26.76611   22.34613   80.84614 #   O
361   121    1    0.00000  259.20393  267.82910  123.45839 #   C
362   121    2   -0.82000  260.32947  267.60945  124.10476 #   O
363   121    2   -0.82000  258.07845  268.04971  122.81231 #   O
364   122    1    0.00000  220.29404  256.90417   50.02577 #   C
365   122    2   -0.82000  219.41155  255.96852   49.74532 #   O
366   122    2   -0.82000  221.17696  257.83919   50.30685 #   O
367   123    1    0.00000  166.82698  216.14718  189.47538 #   C
368   123    2   -0.82000  167.43986  215.19667  190.14901 #   O
369   123    2   -0.82000  166.21335  217.09705  188.80157 #   O
370   124    1    0.00000   83.30885   15.23175  114.74692 #   C
371   124    2   -0.82000   84.05695   14.17740  114.99504 #   O
372   124    2   -0.82000   82.55997   16.28561  114.49920 #   O
373   125    1    0.00000   91.69647  269.98009  169.45080 #   C
374   125    2   -0.82000   90.46331  269.66681  169.78852 #   O
375   125    2   -0.82000   92.92937  270.29433  169.11312 #   O
376   126    1    0.00000  146.66199  122.57219   58.00159 #   C
377   126    2   -0.82000  147.80879  121.93205   57.91242 #   O
378   126    2   -0.82000  145.51570  123.21319   58.09080 #   O
379   127    1    0.00000  152.20859   79.51378  263.01071 #   C
380   127    2   -0.82000  151.80612   78.47989  263.71921 #   O
381   127    2   -0.82000  152.61111   80.54708  262.30142 #   O
382   128    1    0.00000  148.27330  185.49576  164.33491 #   C
383   128    2   -0.82000  148.85967  185.94758  163.24637 #   O
384   128    2   -0.82000  147.68646  185.04482  165.42353 #   O
385   129    1    0.00000  272.56558   53.66506  234.54766 #   C
386   129    2   -0.82000  272.62449   52.39030  234.87078 #   O
387   129    2   -0.82000  272.50580   54.93963  234.22407 #   O
388   130    1    0.00000  211.60907  141.79653   73.02663 #   C
389   130    2   -0.82000  212.90624  141.93742   73.20092 #   O
390   130    2   -0.82000  210.31194  141.65482   72.85292 #   O
391   131    1    0.00000  244.65941   62.04540  226.21073 #   C
392   131    2   -0.82000  243.94455   60.94023  226.18943 #   O
393   131    2   -0.82000  245.37510   63.15001  226.23203 #   O
394   132    1    0.00000  230.30562  150.33607  202.82518 #   C
395   132    2   -0.82000  231.36422  151.05010  202.50518 #   O
396   132    2   -0.82000  229.24750  149.62122  203.14488 #   O
397   133    1    0.00000  118.64314  173.91566  169.41277 #   C
398   133    2   -0.82000  117.64918  173.14570  169.80275 #   O
399   133    2   -0.82000  119.63765  174.68525  169.02355 #   O
400   134    1    0.00000  246.95655  217.99728  230.56364 #   C
401   134    2   -0.82000  247.67902  217.41037  231.49447 #   O
402   134    2   -0.82000  246.23429  218.58341  229.63219 #   O
403   135    1    0.00000  144.84299    9.41337  207.50296 #   C
404   135    2   -0.82000  145.99999    9.67828  206.93371 #   O
405   135    2   -0.82000  143.68624    9.14749  208.07222 #   O
406   136    1    0.00000  225.79362   77.63359  111.28824 #   C
407   136    2   -0.82000  226.39542   78.41448  110.41593 #   O
408   136    2   -0.82000  225.19207   76.85335  112.16127 #   O
409   137    1    0.00000  197.22837  209.93480   68.90829 #   C
410   137    2   -0.82000  196.61554  208.83314   69.28730 #   O
411   137    2   -0.82000  197.84191  211.03629   68.52998 #   O
412   138    1    0.00000   75.56291  254.23816  131.62030 #   C
413   138    2   -0.82000   75.68293  255.14914  130.67765 #   O
414   138    2   -0.82000   75.44204  253.32763  132.56324 #   O
415   139    1    0.00000  232.29500  197.18415    1.30205 #   C
416   139    2   -0.82000  231.91037  196.05332    1.85537 #   O
417   139    2   -0.82000  232.67935  198.31461    0.74784 #   O
418   140    1    0.00000  247.94784  195.86119  252.76605 #   C
419   140    2   -0.82000  248.77180  196.24374  253.71873 #   O
420   140    2   -0.82000  247.12374  195.47777  251.81385 #   O
421   141    1    0.00000   99.79854  101.87830  103.73179 #   C
422   141    2   -0.82000  100.14829  100.76278  103.12667 #   O
423   141    2   -0.82000   99.44864  102.99330  104.33774 #   O
424   142    1    0.00000  110.59662   50.83897  227.61528 #   C
425   142    2   -0.82000  110.74799   52.11433  227.90412 #   O
426   142    2   -0.82000  110.44619   49.56346  227.32675 #   O
427   143    1    0.00000  134.50614  157.44716   79.46530 #   C
428   143    2   -0.82000  135.27043  156.46938   79.90424 #   O
429   143    2   -0.82000  133.74104  158.42440   79.02660 #   O
430   144    1    0.00000  159.73363  266.73055  238.60810 #   C
431   144    2   -0.82000  160.98752  267.08134  238.41422 #   O
432   144    2   -0.82000  158.47948  266.38070  238.80177 #   O
433   145    1    0.00000  256.20943  206.45715  146.20170 #   C
434   145    2   -0.82000  256.14268  207.57897  145.51618 #   O
435   145    2   -0.82000  256.27677  205.33579  146.88789 #   O
436   146    1    0.00000  134.43666   77.85407  161.25119 #   C
437   146    2   -0.82000  135.58796   78.07018  160.65062 #   O
438   146    2   -0.82000  133.28585   77.63742  161.85245 #   O
439   147    1    0.00000  118.42893   87.06529  138.89351 #   C
440   147    2   -0.82000  118.01805   85.81506  138.86210 #   O
441   147    2   -0.82000  118.83922   88.31566  138.92571 #   O
442   148    1    0.00000  113.66628  226.63786   24.91838 #   C
443   148    2   -0.82000  114.52010  225.64093   24.81840 #   O
444   148    2   -0.82000  112.81323  227.63542   25.01840 #   O
445   149    1    0.00000  170.43703  133.13890  185.31053 #   C
446   149    2   -0.82000  169.90833  132.26206  186.13789 #   O
447   149    2   -0.82000  170.96634  134.01503  184.48286 #   O
448   150    1    0.00000  216.50456  109.35413  255.53165 #   C
449   150    2   -0.82000  216.45903  110.19916  254.52332 #   O
450   150    2   -0.82000  216.55075  108.50854  256.53945 #   O
451   151    1    0.00000  226.03072   81.40460   78.04828 #   C
452   151    2   -0.82000  225.32162   82.49578   77.84985 #   O
453   151    2   -0.82000  226.73907   80.31289   78.24631 #   O
454   152    1    0.00000  258.90112  136.89308   13.81066 #   C
455   152    2   -0.82000  260.05237  136.31995   14.09178 #   O
456   152    2   -0.82000  257.74941  137.46546   13.53000 #   O